<VTKFile type="UnstructuredGrid" version="1.0" byte_order="LittleEndian" header_type="UInt64">
  <UnstructuredGrid>
    <Piece NumberOfPoints="8" NumberOfCells="1">
      <PointData>
        <DataArray type="UInt8" Name="uint8x1" NumberOfComponents="1" format="ascii">
          40 41 42 43 44 45 46 47
        </DataArray>
        <DataArray type="UInt16" Name="uint16x1" NumberOfComponents="1" format="ascii">
          40 41 42 43 44 45 46 47
        </DataArray>
        <DataArray type="Int32" Name="int32x1" NumberOfComponents="1" format="ascii">
          40 41 42 43 44 45 46 47
        </DataArray>
        <DataArray type="Int32" Name="int64x1" NumberOfComponents="1" format="ascii">
          40 41 42 43 44 45 46 47
        </DataArray>
        <DataArray type="Float32" Name="float32x1" NumberOfComponents="1" format="ascii">
          1 2 4 8 16 32 64 128
        </DataArray>
        <DataArray type="Float64" Name="float64x1" NumberOfComponents="1" format="ascii">
          1 2 4 8 16 32 64 128
        </DataArray>
      </PointData>
      <CellData>
        <DataArray type="UInt8" Name="uint8x1" NumberOfComponents="1" format="ascii">
          40
        </DataArray>
        <DataArray type="UInt16" Name="uint16x1" NumberOfComponents="1" format="ascii">
          41
        </DataArray>
        <DataArray type="Int32" Name="int32x1" NumberOfComponents="1" format="ascii">
          42
        </DataArray>
        <DataArray type="Int32" Name="int64x1" NumberOfComponents="1" format="ascii">
          43
        </DataArray>
        <DataArray type="Float32" Name="float32x1" NumberOfComponents="1" format="ascii">
          256
        </DataArray>
        <DataArray type="Float64" Name="float64x1" NumberOfComponents="1" format="ascii">
          1024
        </DataArray>
      </CellData>
      <Points>
        <DataArray type="Float32" Name="Points" NumberOfComponents="3" format="ascii" RangeMin="0" RangeMax="1.7320508075688772">
          0 0 0 0 0 -1
          0 1 0 0 1 -1
          1 0 0 1 0 -1
          1 1 0 1 1 -1
        </DataArray>
      </Points>
      <Cells>
        <DataArray type="Int64" Name="connectivity" format="ascii" RangeMin="0" RangeMax="7">
          0 4 5 1 2 6
          7 3
        </DataArray>
        <DataArray type="Int64" Name="offsets" format="ascii" RangeMin="8" RangeMax="8">
          8
        </DataArray>
        <DataArray type="UInt8" Name="types" format="ascii" RangeMin="12" RangeMax="12">
          12
        </DataArray>
      </Cells>
    </Piece>
  </UnstructuredGrid>
</VTKFile>
