# vtk DataFile Version 4.2
vtk output
ASCII
DATASET UNSTRUCTURED_GRID
POINTS 12 double
13.2 135.4 -7.7 13.7 134.2 -8.7 12.2 134.7 -8.6 
12.7 133.6 -7.0 3.6 119.4 -0.3 -2.3 137.0 -2.5 
5.4 119.7 0.0 -2.7 135.9 -1.2 -2.9 137.5 -1.2 
-1.8 136.6 -1.7 4.3 119.7 0.4 4.6 118.7 -0.002 

CELLS 3 15
4 9 5 7 8 
4 3 2 0 1 
4 11 6 4 10 

CELL_TYPES 3
10
10
10

CELL_DATA 3
FIELD FieldData 2
Ones 1 3 float
1 1 1 
METADATA
INFORMATION 0

Zeros 1 3 float
0 0 0 
METADATA
INFORMATION 0

POINT_DATA 12
FIELD FieldData 5
Zeros 1 12 float
0 0 0 0 0 0 0 0 0 
0 0 0 
METADATA
INFORMATION 0

Floats 1 12 float
2.3 2.5 2.3 2.1 1.4 0.8 1.6 0.7 0.8 
0.7 1.5 1.6 
METADATA
INFORMATION 0

Ints 1 12 int
1 1 1 0 0 0 0 0 0 
0 0 0 
METADATA
INFORMATION 0

NegativeInts 1 12 int
-1 -1 -1 -1 -1 -1 -1 -1 -1 
-1 -1 -1 
METADATA
INFORMATION 0

MixedInts 1 12 int
2 -1 3 -1 -1 -1 -1 -1 -1 
0 -1 1 
METADATA
INFORMATION 0

