# vtk DataFile Version 3.0
vtk output
ASCII
DATASET RECTILINEAR_GRID
DIMENSIONS 3 4 1
X_COORDINATES 3 float
0 2 4
Y_COORDINATES 4 float
1 2 3 4
Z_COORDINATES 1 float
0
CELL_DATA 6
FIELD FieldData 1
cellscalar 1 6 float
1.1 7.5 1.2 1.5 2.6 8.1
POINT_DATA 12
