# vtk DataFile Version 2.0
Triangle example
ASCII
DATASET POLYDATA
POINTS 3 float
0.0 0.0 0.0
1.0 0.0 0.0
0.0 0.0 -1.0

POLYGONS 1 4
3 0 1 2

CELL_DATA 1
COLOR_SCALARS scalars 3
1.0 0.0 0.0

TEXTURE_COORDINATES tex_coords 3 float
1.0 0.0 0.0

TENSORS tensors double
1.0 0.0 0.0
0.0 1.0 0.0
0.0 0.0 1.0
